#                 x                   p
  5.82806719551e-19       101825.655318
   0.00502512562814       101825.659757
    0.0100502512563       101825.628439
    0.0150753768844       101825.607657
    0.0201005025126       101825.592646
    0.0251256281407        101825.58019
    0.0301507537688       101825.568262
     0.035175879397       101825.555707
    0.0402010050251       101825.543971
    0.0452261306533       101825.533492
    0.0502512562814       101825.523963
    0.0552763819095        101825.51705
    0.0603015075377        101825.51305
    0.0653266331658       101825.512542
     0.070351758794       101825.515439
    0.0753768844221       101825.521762
    0.0804020100503       101825.531653
    0.0854271356784       101825.544175
    0.0904522613065       101825.559852
    0.0954773869347       101825.578465
     0.100502512563       101825.599126
     0.105527638191       101825.622186
     0.110552763819       101825.647676
     0.115577889447       101825.674891
     0.120603015075        101825.70352
     0.125628140704       101825.733386
     0.130653266332       101825.764204
      0.13567839196       101825.795713
     0.140703517588       101825.828053
     0.145728643216       101825.861142
     0.150753768844       101825.894435
     0.155778894472       101825.928647
     0.160804020101       101825.963636
     0.165829145729       101825.998485
     0.170854271357       101826.033249
     0.175879396985       101826.067852
     0.180904522613       101826.102931
     0.185929648241       101826.138081
     0.190954773869       101826.172352
     0.195979899497       101826.207331
     0.201005025126       101826.242799
     0.206030150754       101826.277243
     0.211055276382       101826.311682
      0.21608040201       101826.346799
     0.221105527638       101826.382354
     0.226130653266        101826.41751
     0.231155778894       101826.451763
     0.236180904523       101826.486323
     0.241206030151       101826.520856
     0.246231155779       101826.554361
     0.251256281407       101826.588474
     0.256281407035       101826.623059
     0.261306532663       101826.656781
     0.266331658291       101826.690578
      0.27135678392       101826.725018
     0.276381909548       101826.759376
     0.281407035176       101826.793305
     0.286432160804       101826.827095
     0.291457286432        101826.86032
      0.29648241206        101826.89371
     0.301507537688       101826.928646
     0.306532663317       101826.963894
     0.311557788945       101826.998568
     0.316582914573       101827.033279
     0.321608040201       101827.068233
     0.326633165829       101827.103369
     0.331658291457       101827.138604
     0.336683417085       101827.175134
     0.341708542714       101827.213051
     0.346733668342       101827.250852
      0.35175879397       101827.289645
     0.356783919598       101827.330894
     0.361809045226       101827.373121
     0.366834170854        101827.41577
     0.371859296482       101827.460785
     0.376884422111       101827.507721
     0.381909547739       101827.555974
     0.386934673367       101827.607522
     0.391959798995       101827.661869
     0.396984924623        101827.71824
     0.402010050251       101827.778157
     0.407035175879       101827.841674
     0.412060301508        101827.90851
     0.417085427136        101827.98005
     0.422110552764       101828.057206
     0.427135678392       101828.139618
      0.43216080402       101828.227459
     0.437185929648       101828.321387
     0.442211055276       101828.422575
     0.447236180905       101828.532391
     0.452261306533       101828.651032
     0.457286432161         101828.7796
     0.462311557789       101828.919825
     0.467336683417       101829.072911
     0.472361809045       101829.241534
     0.477386934673       101829.427878
     0.482412060302       101829.633661
      0.48743718593       101829.862165
     0.492462311558        101830.11662
     0.497487437186       101830.400367
     0.502512562814         101830.7179
     0.507537688442       101831.078014
      0.51256281407        101831.49157
     0.517587939698        101831.96684
     0.522613065327       101832.516767
     0.527638190955       101833.163328
     0.532663316583       101833.935218
     0.537688442211       101834.873205
     0.542713567839       101836.037155
     0.547738693467       101837.511969
     0.552763819095       101839.419475
     0.557788944724        101841.92404
     0.562814070352       101845.218743
      0.56783919598       101849.428639
     0.572864321608       101854.475658
     0.577889447236       101859.888728
     0.582914572864       101864.817652
     0.587939698492       101868.622502
     0.592964824121       101871.100008
     0.597989949749       101872.386264
     0.603015075377       101873.357106
     0.608040201005       101874.958439
     0.613065326633        101877.15349
     0.618090452261       101879.477919
     0.623115577889       101881.639405
     0.628140703518       101883.410904
     0.633165829146       101884.628739
     0.638190954774       101885.269164
     0.643216080402       101885.460522
      0.64824120603       101885.393898
     0.653266331658       101885.229863
     0.658291457286        101885.10081
     0.663316582915       101885.103873
     0.668341708543       101885.284799
     0.673366834171       101885.648352
     0.678391959799       101886.169486
     0.683417085427       101886.807562
     0.688442211055       101887.525487
     0.693467336683       101888.279679
     0.698492462312       101889.023797
      0.70351758794       101889.733224
     0.708542713568       101890.383052
     0.713567839196        101890.93251
     0.718592964824       101891.356581
     0.723618090452       101891.640513
      0.72864321608       101891.781671
     0.733668341709       101891.789312
     0.738693467337       101891.674734
     0.743718592965       101891.472395
     0.748743718593       101891.216763
     0.753768844221       101890.933968
     0.758793969849       101890.662091
     0.763819095477       101890.430643
     0.768844221106       101890.246777
     0.773869346734         101890.1123
     0.778894472362       101890.027255
      0.78391959799       101889.979302
     0.788944723618       101889.952561
     0.793969849246       101889.947348
     0.798994974874       101889.956784
     0.804020100503       101889.969611
     0.809045226131        101889.98437
     0.814070351759       101889.996778
     0.819095477387       101889.997818
     0.824120603015       101890.001702
     0.829145728643       101890.031616
     0.834170854271          101890.085
     0.839195979899       101890.151195
     0.844221105528       101890.227793
     0.849246231156       101890.331661
     0.854271356784       101890.472322
     0.859296482412       101890.605871
      0.86432160804       101890.720931
     0.869346733668       101890.852414
     0.874371859296       101891.021654
     0.879396984925       101891.216356
     0.884422110553       101891.407102
     0.889447236181       101891.593537
     0.894472361809       101891.795494
     0.899497487437       101892.034561
     0.904522613065       101892.276778
     0.909547738693       101892.553831
     0.914572864322       101892.826595
      0.91959798995       101893.044581
     0.924623115578       101893.287546
     0.929648241206       101893.547091
     0.934673366834       101893.799576
     0.939698492462       101894.019131
      0.94472361809        101894.22269
     0.949748743719        101894.44166
     0.954773869347       101894.648614
     0.959798994975       101894.809757
     0.964824120603       101894.960642
     0.969849246231       101895.092492
     0.974874371859       101895.161789
     0.979899497487        101895.21501
     0.984924623116         101895.2625
     0.989949748744       101895.277905
     0.994974874372       101895.275776
                  1       101895.236911
