#                 y    alpha.particles1
  4.69459540686e-18    7.6074080367e-96
   0.00510204081633   7.60740803672e-96
    0.0102040816327    7.6074080367e-96
     0.015306122449    7.6074080367e-96
    0.0204081632653   7.60740803668e-96
    0.0255102040816   7.60740803668e-96
     0.030612244898   7.60740803668e-96
    0.0357142857143   7.60740803668e-96
    0.0408163265306    7.6074080367e-96
    0.0459183673469    7.6074080367e-96
    0.0510204081633    7.6074080367e-96
    0.0561224489796    7.6074080367e-96
    0.0612244897959    7.6074080367e-96
    0.0663265306122    7.6074080367e-96
    0.0714285714286    7.6074080367e-96
    0.0765306122449    7.6074080367e-96
    0.0816326530612    7.6074080367e-96
    0.0867346938776    7.6074080367e-96
    0.0918367346939    7.6074080367e-96
    0.0969387755102    7.6074080367e-96
     0.102040816327    7.6074080367e-96
     0.107142857143    7.6074080367e-96
     0.112244897959    7.6074080367e-96
     0.117346938776    7.6074080367e-96
     0.122448979592    7.6074080367e-96
     0.127551020408    7.6074080367e-96
     0.132653061224    7.6074080367e-96
     0.137755102041    7.6074080367e-96
     0.142857142857    7.6074080367e-96
     0.147959183673    7.6074080367e-96
      0.15306122449    7.6074080367e-96
     0.158163265306    7.6074080367e-96
     0.163265306122    7.6074080367e-96
     0.168367346939    7.6074080367e-96
     0.173469387755    7.6074080367e-96
     0.178571428571    7.6074080367e-96
     0.183673469388    7.6074080367e-96
     0.188775510204    7.6074080367e-96
      0.19387755102    7.6074080367e-96
     0.198979591837    7.6074080367e-96
