#                 x                   p
  5.82806719551e-19       101831.744048
   0.00502512562814       101832.160971
    0.0100502512563       101832.742742
    0.0150753768844       101833.055488
    0.0201005025126       101833.253454
    0.0251256281407       101833.378672
    0.0301507537688       101833.456062
     0.035175879397       101833.504454
    0.0402010050251       101833.530138
    0.0452261306533         101833.5372
    0.0502512562814         101833.5378
    0.0552763819095       101833.536405
    0.0603015075377       101833.532259
    0.0653266331658       101833.525895
     0.070351758794       101833.518574
    0.0753768844221       101833.511478
    0.0804020100503       101833.506289
    0.0854271356784       101833.503021
    0.0904522613065       101833.501534
    0.0954773869347       101833.503675
     0.100502512563       101833.509242
     0.105527638191       101833.517936
     0.110552763819        101833.53236
     0.115577889447       101833.553152
     0.120603015075       101833.579789
     0.125628140704       101833.613734
     0.130653266332       101833.655794
      0.13567839196        101833.70536
     0.140703517588       101833.763357
     0.145728643216       101833.831042
     0.150753768844       101833.907233
     0.155778894472       101833.991089
     0.160804020101       101834.082534
     0.165829145729       101834.181605
     0.170854271357       101834.287651
     0.175879396985       101834.399813
     0.180904522613       101834.517062
     0.185929648241       101834.639369
     0.190954773869       101834.765724
     0.195979899497       101834.894281
     0.201005025126       101835.025724
     0.206030150754       101835.159597
     0.211055276382        101835.29396
      0.21608040201       101835.428169
     0.221105527638       101835.561756
     0.226130653266        101835.69507
     0.231155778894       101835.827307
     0.236180904523        101835.95768
     0.241206030151       101836.086793
     0.246231155779       101836.213376
     0.251256281407       101836.335973
     0.256281407035       101836.455954
     0.261306532663       101836.572823
     0.266331658291       101836.684568
      0.27135678392       101836.792335
     0.276381909548       101836.897398
     0.281407035176       101836.997963
     0.286432160804       101837.092679
     0.291457286432       101837.183681
      0.29648241206       101837.271439
     0.301507537688       101837.354373
     0.306532663317       101837.432651
     0.311557788945       101837.506226
     0.316582914573       101837.575343
     0.321608040201       101837.641482
     0.326633165829       101837.705639
     0.331658291457       101837.766789
     0.336683417085       101837.824029
     0.341708542714       101837.878914
     0.346733668342       101837.932137
      0.35175879397       101837.983493
     0.356783919598       101838.033463
     0.361809045226       101838.083993
     0.366834170854       101838.134952
     0.371859296482       101838.185948
     0.376884422111       101838.240199
     0.381909547739       101838.297602
     0.386934673367       101838.357279
     0.391959798995       101838.422333
     0.396984924623       101838.493702
     0.402010050251       101838.570573
     0.407035175879       101838.655227
     0.412060301508       101838.749555
     0.417085427136       101838.853036
     0.422110552764       101838.966656
     0.427135678392       101839.093156
      0.43216080402       101839.233942
     0.437185929648       101839.389485
     0.442211055276       101839.561838
     0.447236180905        101839.75062
     0.452261306533       101839.955334
     0.457286432161       101840.179584
     0.462311557789       101840.419499
     0.467336683417       101840.672458
     0.472361809045       101840.949973
     0.477386934673         101841.2534
     0.482412060302       101841.574062
      0.48743718593       101841.910206
     0.492462311558        101842.26315
     0.497487437186       101842.633267
     0.502512562814       101843.017508
     0.507537688442        101843.41479
      0.51256281407       101843.825355
     0.517587939698       101844.245909
     0.522613065327       101844.672508
     0.527638190955       101845.101788
     0.532663316583       101845.530802
     0.537688442211       101845.955834
     0.542713567839       101846.376032
     0.547738693467       101846.790288
     0.552763819095        101847.19228
     0.557788944724       101847.579893
     0.562814070352       101847.953212
      0.56783919598       101848.307883
     0.572864321608       101848.644647
     0.577889447236       101848.963537
     0.582914572864         101849.2617
     0.587939698492        101849.53182
     0.592964824121       101849.770138
     0.597989949749       101849.990449
     0.603015075377        101850.20405
     0.608040201005       101850.406783
     0.613065326633       101850.593375
     0.618090452261       101850.768422
     0.623115577889        101850.93402
     0.628140703518       101851.088302
     0.633165829146       101851.240452
     0.638190954774        101851.40045
     0.643216080402       101851.566349
      0.64824120603       101851.737778
     0.653266331658       101851.917833
     0.658291457286        101852.10907
     0.663316582915        101852.30838
     0.668341708543       101852.524915
     0.673366834171       101852.767357
     0.678391959799        101853.02807
     0.683417085427        101853.30826
     0.688442211055       101853.608695
     0.693467336683       101853.929642
     0.698492462312        101854.27716
      0.70351758794       101854.647783
     0.708542713568       101855.033853
     0.713567839196       101855.431956
     0.718592964824       101855.845949
     0.723618090452       101856.286501
      0.72864321608       101856.750256
     0.733668341709       101857.230634
     0.738693467337       101857.730052
     0.743718592965       101858.245462
     0.748743718593       101858.777528
     0.753768844221       101859.329432
     0.758793969849       101859.897849
     0.763819095477       101860.490832
     0.768844221106       101861.115972
     0.773869346734       101861.769687
     0.778894472362       101862.449841
      0.78391959799       101863.170116
     0.788944723618       101863.943126
     0.793969849246       101864.767121
     0.798994974874       101865.645497
     0.804020100503       101866.589301
     0.809045226131       101867.604193
     0.814070351759       101868.686608
     0.819095477387       101869.856215
     0.824120603015       101871.120461
     0.829145728643       101872.491042
     0.834170854271       101873.981503
     0.839195979899       101875.602823
     0.844221105528       101877.375923
     0.849246231156       101879.319526
     0.854271356784         101881.4817
     0.859296482412       101883.915739
      0.86432160804       101886.682879
     0.869346733668        101889.87587
     0.874371859296       101893.612845
     0.879396984925       101898.009186
     0.884422110553       101903.142845
     0.889447236181       101908.962498
     0.894472361809       101915.180051
     0.899497487437        101921.22063
     0.904522613065       101926.442789
     0.909547738693       101930.467613
     0.914572864322        101933.21949
      0.91959798995       101935.017848
     0.924623115578        101936.16704
     0.929648241206         101936.5919
     0.934673366834        101936.08118
     0.939698492462       101934.438686
      0.94472361809       101931.753791
     0.949748743719       101928.639788
     0.954773869347       101925.905737
     0.959798994975       101924.105108
     0.964824120603       101923.482749
     0.969849246231       101923.891187
     0.974874371859       101924.818364
     0.979899497487       101925.647803
     0.984924623116       101926.015472
     0.989949748744       101925.846425
     0.994974874372       101925.480085
                  1       101925.296343
