#                 y    alpha.particles1
  1.71541114647e-17   2.42398313903e-43
   0.00510204081633   2.42398313903e-43
    0.0102040816327   2.42398313903e-43
     0.015306122449   2.42398313903e-43
    0.0204081632653   2.42398313903e-43
    0.0255102040816   2.42398313903e-43
     0.030612244898   2.42398313903e-43
    0.0357142857143   2.42398313903e-43
    0.0408163265306   2.42398313903e-43
    0.0459183673469   2.42398313903e-43
    0.0510204081633   2.42398313903e-43
    0.0561224489796   2.42398313903e-43
    0.0612244897959   2.42398313903e-43
    0.0663265306122   2.42398313903e-43
    0.0714285714286   2.42398313903e-43
    0.0765306122449   2.42398313903e-43
    0.0816326530612   2.42398313903e-43
    0.0867346938776   2.42398313903e-43
    0.0918367346939   2.42398313903e-43
    0.0969387755102   2.42398313903e-43
     0.102040816327   2.42398313903e-43
     0.107142857143   2.42398313903e-43
     0.112244897959   2.42398313903e-43
     0.117346938776   2.42398313903e-43
     0.122448979592   2.42398313903e-43
     0.127551020408   2.42398313903e-43
     0.132653061224   2.42398313903e-43
     0.137755102041   2.42398313903e-43
     0.142857142857   2.42398313903e-43
     0.147959183673   2.42398313903e-43
      0.15306122449   2.42398313903e-43
     0.158163265306   2.42398313903e-43
     0.163265306122   2.42398313903e-43
     0.168367346939   2.42398313903e-43
     0.173469387755   2.42398313903e-43
     0.178571428571   2.42398313903e-43
     0.183673469388   2.42398313903e-43
     0.188775510204   2.42398313903e-43
      0.19387755102   2.42398313903e-43
     0.198979591837   2.42398313903e-43
