#                 y    alpha.particles1
  1.71541114647e-17   4.37622768826e-66
   0.00510204081633   4.37622768826e-66
    0.0102040816327   4.37622768826e-66
     0.015306122449   4.37622768826e-66
    0.0204081632653   4.37622768826e-66
    0.0255102040816   4.37622768826e-66
     0.030612244898   4.37622768826e-66
    0.0357142857143   4.37622768826e-66
    0.0408163265306   4.37622768826e-66
    0.0459183673469   4.37622768826e-66
    0.0510204081633   4.37622768826e-66
    0.0561224489796   4.37622768826e-66
    0.0612244897959   4.37622768826e-66
    0.0663265306122   4.37622768826e-66
    0.0714285714286   4.37622768826e-66
    0.0765306122449   4.37622768826e-66
    0.0816326530612   4.37622768826e-66
    0.0867346938776   4.37622768826e-66
    0.0918367346939   4.37622768826e-66
    0.0969387755102   4.37622768826e-66
     0.102040816327   4.37622768826e-66
     0.107142857143   4.37622768826e-66
     0.112244897959   4.37622768826e-66
     0.117346938776   4.37622768826e-66
     0.122448979592   4.37622768826e-66
     0.127551020408   4.37622768826e-66
     0.132653061224   4.37622768826e-66
     0.137755102041   4.37622768826e-66
     0.142857142857   4.37622768826e-66
     0.147959183673   4.37622768826e-66
      0.15306122449   4.37622768826e-66
     0.158163265306   4.37622768826e-66
     0.163265306122   4.37622768826e-66
     0.168367346939   4.37622768826e-66
     0.173469387755   4.37622768826e-66
     0.178571428571   4.37622768826e-66
     0.183673469388   4.37622768826e-66
     0.188775510204   4.37622768826e-66
      0.19387755102   4.37622768826e-66
     0.198979591837   4.37622768826e-66
