#                 y    alpha.particles1
  4.69459540686e-18  7.98526765379e-182
   0.00510204081633  7.98526765386e-182
    0.0102040816327  7.98526765379e-182
     0.015306122449  7.98526765379e-182
    0.0204081632653  7.98526765373e-182
    0.0255102040816  7.98526765373e-182
     0.030612244898  7.98526765373e-182
    0.0357142857143  7.98526765373e-182
    0.0408163265306  7.98526765379e-182
    0.0459183673469  7.98526765379e-182
    0.0510204081633  7.98526765379e-182
    0.0561224489796  7.98526765379e-182
    0.0612244897959  7.98526765379e-182
    0.0663265306122  7.98526765379e-182
    0.0714285714286  7.98526765379e-182
    0.0765306122449  7.98526765379e-182
    0.0816326530612  7.98526765379e-182
    0.0867346938776  7.98526765379e-182
    0.0918367346939  7.98526765379e-182
    0.0969387755102  7.98526765379e-182
     0.102040816327  7.98526765379e-182
     0.107142857143  7.98526765379e-182
     0.112244897959  7.98526765379e-182
     0.117346938776  7.98526765379e-182
     0.122448979592  7.98526765379e-182
     0.127551020408  7.98526765379e-182
     0.132653061224  7.98526765379e-182
     0.137755102041  7.98526765379e-182
     0.142857142857  7.98526765379e-182
     0.147959183673  7.98526765379e-182
      0.15306122449  7.98526765379e-182
     0.158163265306  7.98526765379e-182
     0.163265306122  7.98526765379e-182
     0.168367346939  7.98526765379e-182
     0.173469387755  7.98526765379e-182
     0.178571428571  7.98526765379e-182
     0.183673469388  7.98526765379e-182
     0.188775510204  7.98526765379e-182
      0.19387755102  7.98526765379e-182
     0.198979591837  7.98526765379e-182
