#                 x                   p
  5.82806719551e-19       101879.340035
   0.00502512562814       101877.788947
    0.0100502512563       101875.977382
    0.0150753768844       101875.619837
    0.0201005025126       101875.407129
    0.0251256281407       101875.168034
    0.0301507537688       101874.866405
     0.035175879397       101874.488627
    0.0402010050251       101874.030641
    0.0452261306533       101873.491812
    0.0502512562814       101872.873186
    0.0552763819095       101872.176866
    0.0603015075377       101871.407415
    0.0653266331658       101870.571779
     0.070351758794       101869.677977
    0.0753768844221       101868.735491
    0.0804020100503       101867.754712
    0.0854271356784       101866.747466
    0.0904522613065       101865.726148
    0.0954773869347       101864.702137
     0.100502512563       101863.686708
     0.105527638191       101862.692006
     0.110552763819       101861.728315
     0.115577889447       101860.803345
     0.120603015075       101859.925365
     0.125628140704       101859.100918
     0.130653266332       101858.333568
      0.13567839196       101857.626438
     0.140703517588       101856.982653
     0.145728643216       101856.403127
     0.150753768844       101855.887447
     0.155778894472       101855.435633
     0.160804020101       101855.046515
     0.165829145729       101854.717282
     0.170854271357       101854.446619
     0.175879396985       101854.230248
     0.180904522613       101854.064829
     0.185929648241       101853.938453
     0.190954773869       101853.858396
     0.195979899497       101853.829239
     0.201005025126       101853.830942
     0.206030150754       101853.858929
     0.211055276382       101853.912197
      0.21608040201        101853.98612
     0.221105527638       101854.075466
     0.226130653266        101854.17462
     0.231155778894       101854.278515
     0.236180904523       101854.383436
     0.241206030151       101854.483291
     0.246231155779       101854.575045
     0.251256281407       101854.660087
     0.256281407035       101854.720939
     0.261306532663       101854.756891
     0.266331658291       101854.783715
      0.27135678392       101854.795998
     0.276381909548       101854.786798
     0.281407035176       101854.755853
     0.286432160804       101854.705895
     0.291457286432       101854.635409
      0.29648241206        101854.54436
     0.301507537688       101854.436268
     0.306532663317       101854.313309
     0.311557788945       101854.178277
     0.316582914573       101854.034263
     0.321608040201       101853.883004
     0.326633165829       101853.725968
     0.331658291457        101853.56211
     0.336683417085        101853.39641
     0.341708542714       101853.233628
     0.346733668342       101853.043819
      0.35175879397       101852.813185
     0.356783919598       101852.579703
     0.361809045226       101852.354755
     0.366834170854       101852.123755
     0.371859296482       101851.885363
     0.376884422111        101851.63952
     0.381909547739       101851.386863
     0.386934673367       101851.130701
     0.391959798995        101850.87282
     0.396984924623       101850.616045
     0.402010050251       101850.366026
     0.407035175879       101850.125318
     0.412060301508       101849.893943
     0.417085427136       101849.672936
     0.422110552764       101849.462937
     0.427135678392        101849.26273
      0.43216080402       101849.063957
     0.437185929648       101848.863712
     0.442211055276       101848.669607
     0.447236180905       101848.468345
     0.452261306533       101848.245945
     0.457286432161        101848.00456
     0.462311557789       101847.730516
     0.467336683417       101847.400288
     0.472361809045       101846.988866
     0.477386934673       101846.417427
     0.482412060302       101845.659757
      0.48743718593        101844.90858
     0.492462311558       101844.232374
     0.497487437186       101843.311643
     0.502512562814        101841.99325
     0.507537688442       101840.478644
      0.51256281407       101838.881822
     0.517587939698       101837.246897
     0.522613065327        101835.70417
     0.527638190955       101834.362015
     0.532663316583       101833.246091
     0.537688442211       101832.330275
     0.542713567839       101831.572716
     0.547738693467       101830.936771
     0.552763819095        101830.39333
     0.557788944724       101829.919706
     0.562814070352       101829.499747
      0.56783919598       101829.122059
     0.572864321608       101828.778539
     0.577889447236       101828.463313
     0.582914572864       101828.172023
     0.587939698492       101827.901344
     0.592964824121       101827.648673
     0.597989949749       101827.411927
     0.603015075377       101827.189397
     0.608040201005       101826.979659
     0.613065326633       101826.781511
     0.618090452261       101826.593919
     0.623115577889       101826.415992
     0.628140703518        101826.24695
     0.633165829146       101826.086108
     0.638190954774       101825.932858
     0.643216080402       101825.786662
      0.64824120603       101825.647037
     0.653266331658       101825.513552
     0.658291457286       101825.385815
     0.663316582915       101825.263474
     0.668341708543        101825.14621
     0.673366834171       101825.033731
     0.678391959799        101824.92577
     0.683417085427       101824.822083
     0.688442211055       101824.722445
     0.693467336683        101824.62665
     0.698492462312       101824.534509
      0.70351758794       101824.445847
     0.708542713568         101824.3605
     0.713567839196       101824.278318
     0.718592964824       101824.199162
     0.723618090452         101824.1229
      0.72864321608       101824.049409
     0.733668341709       101823.978569
     0.738693467337       101823.910277
     0.743718592965       101823.844436
     0.748743718593       101823.780956
     0.753768844221       101823.719749
     0.758793969849       101823.660732
     0.763819095477       101823.603826
     0.768844221106       101823.548957
     0.773869346734       101823.496056
     0.778894472362       101823.445058
      0.78391959799       101823.395899
     0.788944723618       101823.348521
     0.793969849246       101823.302869
     0.798994974874       101823.258888
     0.804020100503        101823.21653
     0.809045226131       101823.175746
     0.814070351759       101823.136491
     0.819095477387       101823.098722
     0.824120603015       101823.062398
     0.829145728643       101823.027481
     0.834170854271       101822.993934
     0.839195979899       101822.961721
     0.844221105528        101822.93081
     0.849246231156        101822.90117
     0.854271356784        101822.87277
     0.859296482412       101822.845582
      0.86432160804        101822.81958
     0.869346733668       101822.794739
     0.874371859296       101822.771036
     0.879396984925       101822.748448
     0.884422110553       101822.726954
     0.889447236181       101822.706535
     0.894472361809       101822.687176
     0.899497487437       101822.668859
     0.904522613065        101822.65157
     0.909547738693       101822.635299
     0.914572864322       101822.620035
      0.91959798995       101822.605772
     0.924623115578       101822.592509
     0.929648241206       101822.580247
     0.934673366834       101822.568997
     0.939698492462       101822.558776
      0.94472361809       101822.549613
     0.949748743719       101822.541548
     0.954773869347        101822.53464
     0.959798994975       101822.528966
     0.964824120603       101822.524622
     0.969849246231       101822.521722
     0.974874371859       101822.520382
     0.979899497487       101822.520689
     0.984924623116       101822.522609
     0.989949748744       101822.526229
     0.994974874372       101822.529734
                  1       101822.510238
