#                 x                   p
  5.82806719551e-19       101824.590022
   0.00502512562814        101824.60955
    0.0100502512563       101824.603778
    0.0150753768844       101824.599052
    0.0201005025126       101824.594247
    0.0251256281407        101824.58927
    0.0301507537688       101824.584367
     0.035175879397        101824.57948
    0.0402010050251       101824.575483
    0.0452261306533       101824.573051
    0.0502512562814       101824.571514
    0.0552763819095       101824.571545
    0.0603015075377       101824.573758
    0.0653266331658       101824.577135
     0.070351758794       101824.581499
    0.0753768844221        101824.58756
    0.0804020100503       101824.595824
    0.0854271356784       101824.606407
    0.0904522613065       101824.618613
    0.0954773869347       101824.633631
     0.100502512563       101824.651045
     0.105527638191       101824.669164
     0.110552763819       101824.688771
     0.115577889447       101824.712669
     0.120603015075       101824.740833
     0.125628140704       101824.770333
     0.130653266332       101824.802138
      0.13567839196       101824.838191
     0.140703517588       101824.878002
     0.145728643216       101824.921459
     0.150753768844       101824.969763
     0.155778894472       101825.023077
     0.160804020101       101825.081819
     0.165829145729       101825.147192
     0.170854271357       101825.220202
     0.175879396985       101825.302031
     0.180904522613       101825.394355
     0.185929648241       101825.499608
     0.190954773869       101825.621343
     0.195979899497       101825.763555
     0.201005025126       101825.932133
     0.206030150754        101826.13731
     0.211055276382       101826.393524
      0.21608040201       101826.722945
     0.221105527638       101827.160864
     0.226130653266       101827.760774
     0.231155778894       101828.599816
     0.236180904523       101829.769899
     0.241206030151       101831.343676
     0.246231155779       101833.292027
     0.251256281407       101835.414504
     0.256281407035       101837.437302
     0.261306532663       101839.093417
     0.266331658291        101840.35269
      0.27135678392       101841.500733
     0.276381909548       101842.703038
     0.281407035176       101843.814368
     0.286432160804       101844.746246
     0.291457286432       101845.564716
      0.29648241206       101846.293637
     0.301507537688       101846.924607
     0.306532663317       101847.448937
     0.311557788945       101847.891107
     0.316582914573       101848.305483
     0.321608040201       101848.673376
     0.326633165829       101848.976758
     0.331658291457       101849.266431
     0.336683417085       101849.504843
     0.341708542714       101849.683524
     0.346733668342        101849.82965
      0.35175879397        101849.96135
     0.356783919598       101850.142117
     0.361809045226       101850.325138
     0.366834170854        101850.47965
     0.371859296482       101850.677661
     0.376884422111       101850.898499
     0.381909547739        101851.09814
     0.386934673367       101851.299807
     0.391959798995       101851.509646
     0.396984924623       101851.729135
     0.402010050251       101851.955574
     0.407035175879       101852.186189
     0.412060301508       101852.419715
     0.417085427136       101852.661518
     0.422110552764       101852.924708
     0.427135678392       101853.211626
      0.43216080402       101853.503242
     0.437185929648       101853.780575
     0.442211055276       101854.044483
     0.447236180905       101854.317731
     0.452261306533       101854.650909
     0.457286432161       101855.033892
     0.462311557789       101855.387047
     0.467336683417       101855.704929
     0.472361809045       101856.042574
     0.477386934673       101856.406508
     0.482412060302       101856.786243
      0.48743718593       101857.169848
     0.492462311558       101857.560692
     0.497487437186       101857.973623
     0.502512562814       101858.375048
     0.507537688442       101858.730111
      0.51256281407       101859.035587
     0.517587939698       101859.286956
     0.522613065327       101859.480433
     0.527638190955       101859.643082
     0.532663316583       101859.804811
     0.537688442211       101859.947023
     0.542713567839       101860.059909
     0.547738693467       101860.153386
     0.552763819095       101860.220231
     0.557788944724       101860.256679
     0.562814070352       101860.276039
      0.56783919598       101860.286602
     0.572864321608       101860.283941
     0.577889447236       101860.261168
     0.582914572864       101860.218755
     0.587939698492       101860.160385
     0.592964824121       101860.099577
     0.597989949749        101860.04541
     0.603015075377       101859.995098
     0.608040201005       101859.949488
     0.613065326633       101859.901978
     0.618090452261       101859.842365
     0.623115577889       101859.784217
     0.628140703518       101859.741163
     0.633165829146       101859.714854
     0.638190954774       101859.723545
     0.643216080402       101859.763688
      0.64824120603       101859.816497
     0.653266331658       101859.870081
     0.658291457286       101859.923479
     0.663316582915       101859.968332
     0.668341708543        101860.02172
     0.673366834171       101860.103488
     0.678391959799       101860.188307
     0.683417085427       101860.261546
     0.688442211055        101860.30455
     0.693467336683       101860.369744
     0.698492462312       101860.487086
      0.70351758794        101860.58097
     0.708542713568       101860.618149
     0.713567839196       101860.624605
     0.718592964824       101860.631765
     0.723618090452       101860.651245
      0.72864321608       101860.668362
     0.733668341709       101860.669321
     0.738693467337       101860.653793
     0.743718592965       101860.626093
     0.748743718593       101860.590013
     0.753768844221        101860.59667
     0.758793969849       101860.636823
     0.763819095477       101860.629892
     0.768844221106        101860.60353
     0.773869346734       101860.545871
     0.778894472362       101860.481735
      0.78391959799       101860.504596
     0.788944723618       101860.553426
     0.793969849246       101860.550471
     0.798994974874       101860.510856
     0.804020100503       101860.446196
     0.809045226131       101860.387046
     0.814070351759       101860.304668
     0.819095477387        101860.22199
     0.824120603015       101860.175243
     0.829145728643       101860.095052
     0.834170854271       101860.023007
     0.839195979899        101859.98235
     0.844221105528       101859.914481
     0.849246231156       101859.873116
     0.854271356784       101859.863798
     0.859296482412       101859.811424
      0.86432160804       101859.719068
     0.869346733668       101859.620956
     0.874371859296        101859.56223
     0.879396984925       101859.508465
     0.884422110553       101859.426822
     0.889447236181       101859.319311
     0.894472361809       101859.257241
     0.899497487437       101859.229505
     0.904522613065       101859.135614
     0.909547738693       101859.073533
     0.914572864322       101859.037284
      0.91959798995       101858.959494
     0.924623115578       101858.894318
     0.929648241206       101858.810813
     0.934673366834       101858.709934
     0.939698492462       101858.577758
      0.94472361809       101858.479129
     0.949748743719       101858.414722
     0.954773869347       101858.319555
     0.959798994975        101858.19776
     0.964824120603       101858.115931
     0.969849246231       101858.093223
     0.974874371859       101858.021596
     0.979899497487       101857.946825
     0.984924623116       101857.886657
     0.989949748744        101857.77854
     0.994974874372       101857.677258
                  1       101857.609965
