#                 y    alpha.particles1
  4.69459540686e-18  1.50027351336e-105
   0.00510204081633  1.50027351337e-105
    0.0102040816327  1.50027351336e-105
     0.015306122449  1.50027351336e-105
    0.0204081632653  1.50027351336e-105
    0.0255102040816  1.50027351336e-105
     0.030612244898  1.50027351336e-105
    0.0357142857143  1.50027351336e-105
    0.0408163265306  1.50027351336e-105
    0.0459183673469  1.50027351336e-105
    0.0510204081633  1.50027351336e-105
    0.0561224489796  1.50027351336e-105
    0.0612244897959  1.50027351336e-105
    0.0663265306122  1.50027351336e-105
    0.0714285714286  1.50027351336e-105
    0.0765306122449  1.50027351336e-105
    0.0816326530612  1.50027351336e-105
    0.0867346938776  1.50027351336e-105
    0.0918367346939  1.50027351336e-105
    0.0969387755102  1.50027351336e-105
     0.102040816327  1.50027351336e-105
     0.107142857143  1.50027351336e-105
     0.112244897959  1.50027351336e-105
     0.117346938776  1.50027351336e-105
     0.122448979592  1.50027351336e-105
     0.127551020408  1.50027351336e-105
     0.132653061224  1.50027351336e-105
     0.137755102041  1.50027351336e-105
     0.142857142857  1.50027351336e-105
     0.147959183673  1.50027351336e-105
      0.15306122449  1.50027351336e-105
     0.158163265306  1.50027351336e-105
     0.163265306122  1.50027351336e-105
     0.168367346939  1.50027351336e-105
     0.173469387755  1.50027351336e-105
     0.178571428571  1.50027351336e-105
     0.183673469388  1.50027351336e-105
     0.188775510204  1.50027351336e-105
      0.19387755102  1.50027351336e-105
     0.198979591837  1.50027351336e-105
