#                 y    alpha.particles1
  4.69459540686e-18  3.63337152886e-193
   0.00510204081633  3.63337152889e-193
    0.0102040816327  3.63337152886e-193
     0.015306122449  3.63337152886e-193
    0.0204081632653  3.63337152883e-193
    0.0255102040816  3.63337152883e-193
     0.030612244898  3.63337152883e-193
    0.0357142857143  3.63337152883e-193
    0.0408163265306  3.63337152886e-193
    0.0459183673469  3.63337152886e-193
    0.0510204081633  3.63337152886e-193
    0.0561224489796  3.63337152886e-193
    0.0612244897959  3.63337152886e-193
    0.0663265306122  3.63337152886e-193
    0.0714285714286  3.63337152886e-193
    0.0765306122449  3.63337152886e-193
    0.0816326530612  3.63337152886e-193
    0.0867346938776  3.63337152886e-193
    0.0918367346939  3.63337152886e-193
    0.0969387755102  3.63337152886e-193
     0.102040816327  3.63337152886e-193
     0.107142857143  3.63337152886e-193
     0.112244897959  3.63337152886e-193
     0.117346938776  3.63337152886e-193
     0.122448979592  3.63337152886e-193
     0.127551020408  3.63337152886e-193
     0.132653061224  3.63337152886e-193
     0.137755102041  3.63337152886e-193
     0.142857142857  3.63337152886e-193
     0.147959183673  3.63337152886e-193
      0.15306122449  3.63337152886e-193
     0.158163265306  3.63337152886e-193
     0.163265306122  3.63337152886e-193
     0.168367346939  3.63337152886e-193
     0.173469387755  3.63337152886e-193
     0.178571428571  3.63337152886e-193
     0.183673469388  3.63337152886e-193
     0.188775510204  3.63337152886e-193
      0.19387755102  3.63337152886e-193
     0.198979591837  3.63337152886e-193
