#                 x                   p
  5.82806719551e-19       101881.557844
   0.00502512562814        101880.01001
    0.0100502512563       101878.206697
    0.0150753768844       101877.864468
    0.0201005025126       101877.675997
    0.0251256281407       101877.469592
    0.0301507537688        101877.21095
     0.035175879397       101876.886856
    0.0402010050251       101876.493623
    0.0452261306533       101876.031197
    0.0502512562814       101875.500213
    0.0552763819095       101874.902799
    0.0603015075377       101874.243068
    0.0653266331658       101873.526265
     0.070351758794        101872.75881
    0.0753768844221       101871.948264
    0.0804020100503       101871.102813
    0.0854271356784       101870.231552
    0.0904522613065        101869.34338
    0.0954773869347        101868.44711
     0.100502512563       101867.552016
     0.105527638191       101866.665828
     0.110552763819       101865.794942
     0.115577889447       101864.946172
     0.120603015075       101864.124506
     0.125628140704       101863.332841
     0.130653266332       101862.574047
      0.13567839196        101861.85033
     0.140703517588       101861.162073
     0.145728643216        101860.50886
     0.150753768844       101859.890706
     0.155778894472       101859.306124
     0.160804020101        101858.75324
     0.165829145729       101858.230554
     0.170854271357       101857.736115
     0.175879396985       101857.268394
     0.180904522613       101856.825023
     0.185929648241       101856.403731
     0.190954773869        101856.00353
     0.195979899497       101855.622208
     0.201005025126        101855.25779
     0.206030150754        101854.91004
     0.211055276382       101854.577332
      0.21608040201       101854.258198
     0.221105527638       101853.951857
     0.226130653266       101853.657616
     0.231155778894       101853.375738
     0.236180904523       101853.105188
     0.241206030151       101852.845543
     0.246231155779         101852.5982
     0.251256281407       101852.362692
     0.256281407035       101852.138101
     0.261306532663       101851.926458
     0.266331658291       101851.728816
      0.27135678392       101851.544419
     0.276381909548       101851.373505
     0.281407035176       101851.218644
     0.286432160804       101851.080379
     0.291457286432       101850.957999
      0.29648241206       101850.855583
     0.301507537688       101850.763782
     0.306532663317       101850.689917
     0.311557788945       101850.649672
     0.316582914573       101850.631081
     0.321608040201       101850.630341
     0.326633165829       101850.652193
     0.331658291457       101850.698558
     0.336683417085       101850.769259
     0.341708542714       101850.863123
     0.346733668342       101850.981767
      0.35175879397        101851.12417
     0.356783919598       101851.287792
     0.361809045226       101851.472137
     0.366834170854       101851.678334
     0.371859296482        101851.90378
     0.376884422111       101852.144724
     0.381909547739       101852.401497
     0.386934673367       101852.671174
     0.391959798995       101852.949084
     0.396984924623       101853.233412
     0.402010050251       101853.521456
     0.407035175879       101853.809039
     0.412060301508       101854.093945
     0.417085427136       101854.374111
     0.422110552764       101854.644934
     0.427135678392       101854.903498
      0.43216080402       101855.147796
     0.437185929648       101855.372679
     0.442211055276       101855.576253
     0.447236180905       101855.761173
     0.452261306533       101855.924457
     0.457286432161       101856.064163
     0.462311557789       101856.184136
     0.467336683417       101856.282286
     0.472361809045        101856.35776
     0.477386934673       101856.404184
     0.482412060302       101856.421103
      0.48743718593        101856.44018
     0.492462311558       101856.463758
     0.497487437186       101856.463468
     0.502512562814       101856.431901
     0.507537688442        101856.38009
      0.51256281407       101856.325352
     0.517587939698       101856.276678
     0.522613065327       101856.234976
     0.527638190955       101856.195826
     0.532663316583       101856.160569
     0.537688442211        101856.12978
     0.542713567839       101856.104651
     0.547738693467       101856.085989
     0.552763819095       101856.067497
     0.557788944724       101856.060588
     0.562814070352       101856.063095
      0.56783919598        101856.07189
     0.572864321608       101856.099298
     0.577889447236       101856.123428
     0.582914572864       101856.140738
     0.587939698492       101856.175007
     0.592964824121        101856.20519
     0.597989949749       101856.225088
     0.603015075377       101856.260794
     0.608040201005       101856.292886
     0.613065326633       101856.314744
     0.618090452261       101856.349283
     0.623115577889       101856.374056
     0.628140703518       101856.383185
     0.633165829146       101856.405435
     0.638190954774       101856.422611
     0.643216080402       101856.423953
      0.64824120603       101856.437136
     0.653266331658       101856.451408
     0.658291457286       101856.443218
     0.663316582915        101856.42959
     0.668341708543       101856.421973
     0.673366834171       101856.411597
     0.678391959799       101856.396082
     0.683417085427       101856.372991
     0.688442211055       101856.343348
     0.693467336683       101856.306828
     0.698492462312       101856.264348
      0.70351758794       101856.217235
     0.708542713568       101856.162581
     0.713567839196       101856.104608
     0.718592964824       101856.044748
     0.723618090452       101855.977563
      0.72864321608       101855.902249
     0.733668341709       101855.823512
     0.738693467337       101855.746717
     0.743718592965        101855.66308
     0.748743718593       101855.575729
     0.753768844221       101855.493531
     0.758793969849       101855.407504
     0.763819095477       101855.310192
     0.768844221106       101855.207883
     0.773869346734       101855.101144
     0.778894472362       101854.995182
      0.78391959799       101854.891988
     0.788944723618       101854.783704
     0.793969849246       101854.675773
     0.798994974874       101854.570128
     0.804020100503       101854.463271
     0.809045226131       101854.364276
     0.814070351759       101854.285332
     0.819095477387       101854.223292
     0.824120603015       101854.156389
     0.829145728643       101854.109696
     0.834170854271       101854.114161
     0.839195979899       101854.144098
     0.844221105528       101854.188409
     0.849246231156       101854.242245
     0.854271356784       101854.317305
     0.859296482412       101854.412838
      0.86432160804       101854.496671
     0.869346733668       101854.571294
     0.874371859296       101854.616193
     0.879396984925       101854.612761
     0.884422110553       101854.569987
     0.889447236181       101854.467877
     0.894472361809       101854.287918
     0.899497487437       101854.009279
     0.904522613065        101853.64897
     0.909547738693       101853.241209
     0.914572864322       101852.793209
      0.91959798995       101852.285801
     0.924623115578       101851.691268
     0.929648241206       101851.005766
     0.934673366834       101850.233558
     0.939698492462       101849.381602
      0.94472361809        101848.59843
     0.949748743719        101848.16585
     0.954773869347       101847.703423
     0.959798994975       101846.703494
     0.964824120603       101845.345961
     0.969849246231       101843.781458
     0.974874371859       101842.188145
     0.979899497487       101840.855931
     0.984924623116       101839.898006
     0.989949748744        101839.32973
     0.994974874372        101839.06711
                  1       101838.970637
