#                 y    alpha.particles1
  4.69459540686e-18   5.96056860405e-32
   0.00510204081633   5.96056860405e-32
    0.0102040816327   5.96056860405e-32
     0.015306122449   5.96056860405e-32
    0.0204081632653   5.96056860405e-32
    0.0255102040816   5.96056860405e-32
     0.030612244898   5.96056860405e-32
    0.0357142857143   5.96056860405e-32
    0.0408163265306   5.96056860405e-32
    0.0459183673469   5.96056860405e-32
    0.0510204081633   5.96056860405e-32
    0.0561224489796   5.96056860405e-32
    0.0612244897959   5.96056860405e-32
    0.0663265306122   5.96056860405e-32
    0.0714285714286   5.96056860405e-32
    0.0765306122449   5.96056860405e-32
    0.0816326530612   5.96056860405e-32
    0.0867346938776   5.96056860405e-32
    0.0918367346939   5.96056860405e-32
    0.0969387755102   5.96056860405e-32
     0.102040816327   5.96056860405e-32
     0.107142857143   5.96056860405e-32
     0.112244897959   5.96056860405e-32
     0.117346938776   5.96056860405e-32
     0.122448979592   5.96056860405e-32
     0.127551020408   5.96056860405e-32
     0.132653061224   5.96056860405e-32
     0.137755102041   5.96056860405e-32
     0.142857142857   5.96056860405e-32
     0.147959183673   5.96056860405e-32
      0.15306122449   5.96056860405e-32
     0.158163265306   5.96056860405e-32
     0.163265306122   5.96056860405e-32
     0.168367346939   5.96056860405e-32
     0.173469387755   5.96056860405e-32
     0.178571428571   5.96056860405e-32
     0.183673469388   5.96056860405e-32
     0.188775510204   5.96056860405e-32
      0.19387755102   5.96056860405e-32
     0.198979591837   5.96056860405e-32
