#                 x                   p
  5.82806719551e-19       101824.965537
   0.00502512562814       101824.978913
    0.0100502512563       101824.963757
    0.0150753768844       101824.954572
    0.0201005025126       101824.947075
    0.0251256281407       101824.939262
    0.0301507537688        101824.92931
     0.035175879397       101824.917877
    0.0402010050251       101824.906715
    0.0452261306533       101824.895434
    0.0502512562814       101824.885347
    0.0552763819095       101824.878085
    0.0603015075377       101824.873124
    0.0653266331658       101824.870259
     0.070351758794       101824.868711
    0.0753768844221       101824.867611
    0.0804020100503       101824.868846
    0.0854271356784       101824.872653
    0.0904522613065       101824.878017
    0.0954773869347       101824.885247
     0.100502512563       101824.893785
     0.105527638191       101824.903334
     0.110552763819        101824.91491
     0.115577889447       101824.928595
     0.120603015075       101824.943853
     0.125628140704        101824.96092
     0.130653266332       101824.980003
      0.13567839196       101825.000704
     0.140703517588       101825.023167
     0.145728643216       101825.047703
     0.150753768844       101825.073637
     0.155778894472       101825.100664
     0.160804020101        101825.12885
     0.165829145729       101825.158477
     0.170854271357       101825.189564
     0.175879396985       101825.221697
     0.180904522613       101825.254516
     0.185929648241       101825.288491
     0.190954773869       101825.323413
     0.195979899497       101825.358608
     0.201005025126       101825.394928
     0.206030150754       101825.432539
     0.211055276382       101825.470735
      0.21608040201       101825.509363
     0.221105527638       101825.548373
     0.226130653266       101825.588516
     0.231155778894       101825.629766
     0.236180904523       101825.671828
     0.241206030151       101825.715186
     0.246231155779       101825.759311
     0.251256281407       101825.803833
     0.256281407035       101825.850211
     0.261306532663       101825.898426
     0.266331658291       101825.947304
      0.27135678392       101825.997554
     0.276381909548       101826.050328
     0.281407035176       101826.105639
     0.286432160804       101826.162778
     0.291457286432       101826.222134
      0.29648241206       101826.283656
     0.301507537688       101826.347115
     0.306532663317       101826.414128
     0.311557788945       101826.485471
     0.316582914573       101826.561307
     0.321608040201        101826.64229
     0.326633165829       101826.729224
     0.331658291457        101826.82226
     0.336683417085       101826.921753
     0.341708542714       101827.029638
     0.346733668342       101827.147319
      0.35175879397       101827.276086
     0.356783919598       101827.418056
     0.361809045226       101827.576804
     0.366834170854       101827.754363
     0.371859296482       101827.953672
     0.376884422111       101828.184329
     0.381909547739        101828.45398
     0.386934673367       101828.771547
     0.391959798995       101829.155994
     0.396984924623       101829.633819
     0.402010050251       101830.245239
     0.407035175879       101831.055319
     0.412060301508       101832.164042
     0.417085427136       101833.715492
     0.422110552764       101835.874058
     0.427135678392       101838.743745
      0.43216080402       101842.186069
     0.437185929648       101845.656383
     0.442211055276       101848.405929
     0.447236180905       101850.009837
     0.452261306533        101850.91488
     0.457286432161       101852.093324
     0.462311557789       101853.758046
     0.467336683417       101855.349385
     0.472361809045       101856.560906
     0.477386934673       101857.420912
     0.482412060302       101858.047063
      0.48743718593        101858.56468
     0.492462311558       101859.031678
     0.497487437186       101859.508978
     0.502512562814       101860.070648
     0.507537688442       101860.730817
      0.51256281407        101861.44854
     0.517587939698        101862.17799
     0.522613065327        101862.89807
     0.527638190955       101863.596448
     0.532663316583       101864.262902
     0.537688442211        101864.92078
     0.542713567839       101865.582372
     0.547738693467       101866.255315
     0.552763819095       101866.950718
     0.557788944724       101867.660436
     0.562814070352        101868.38245
      0.56783919598       101869.110796
     0.572864321608       101869.829614
     0.577889447236       101870.526028
     0.582914572864       101871.189856
     0.587939698492       101871.804595
     0.592964824121       101872.367859
     0.597989949749       101872.893617
     0.603015075377        101873.37966
     0.608040201005       101873.819782
     0.613065326633       101874.210532
     0.618090452261       101874.556373
     0.623115577889       101874.862574
     0.628140703518       101875.126354
     0.633165829146       101875.350056
     0.638190954774       101875.542068
     0.643216080402       101875.706475
      0.64824120603       101875.854315
     0.653266331658       101875.992611
     0.658291457286       101876.109197
     0.663316582915       101876.200077
     0.668341708543       101876.265836
     0.673366834171       101876.295806
     0.678391959799       101876.267014
     0.683417085427       101876.269408
     0.688442211055       101876.349048
     0.693467336683       101876.402798
     0.698492462312       101876.406259
      0.70351758794       101876.384319
     0.708542713568       101876.333609
     0.713567839196       101876.240756
     0.718592964824       101876.163137
     0.723618090452       101876.139569
      0.72864321608       101876.119068
     0.733668341709       101876.061425
     0.738693467337       101875.964462
     0.743718592965       101875.848274
     0.748743718593       101875.718553
     0.753768844221       101875.607996
     0.758793969849       101875.525254
     0.763819095477       101875.413661
     0.768844221106       101875.279322
     0.773869346734       101875.135839
     0.778894472362       101875.002619
      0.78391959799       101874.943813
     0.788944723618       101874.931321
     0.793969849246       101874.906079
     0.798994974874       101874.868393
     0.804020100503       101874.827642
     0.809045226131       101874.805822
     0.814070351759       101874.780572
     0.819095477387       101874.778835
     0.824120603015        101874.80945
     0.829145728643       101874.820015
     0.834170854271       101874.857449
     0.839195979899       101874.912022
     0.844221105528       101874.917902
     0.849246231156        101874.94551
     0.854271356784       101874.995853
     0.859296482412       101874.991362
      0.86432160804       101874.951951
     0.869346733668       101874.923868
     0.874371859296       101874.936901
     0.879396984925       101874.941923
     0.884422110553       101874.912564
     0.889447236181       101874.848464
     0.894472361809       101874.825574
     0.899497487437       101874.829286
     0.904522613065       101874.749349
     0.909547738693       101874.678015
     0.914572864322        101874.62505
      0.91959798995       101874.543513
     0.924623115578       101874.469943
     0.929648241206       101874.386096
     0.934673366834        101874.28607
     0.939698492462       101874.151037
      0.94472361809       101874.035506
     0.949748743719       101873.953435
     0.954773869347       101873.863341
     0.959798994975       101873.771549
     0.964824120603       101873.714504
     0.969849246231       101873.689918
     0.974874371859        101873.63064
     0.979899497487       101873.572841
     0.984924623116       101873.531317
     0.989949748744       101873.472875
     0.994974874372       101873.453583
                  1       101873.429416
