#                 y    alpha.particles1
  1.71541114647e-17  3.79594595901e-122
   0.00510204081633  3.79594595901e-122
    0.0102040816327  3.79594595901e-122
     0.015306122449  3.79594595901e-122
    0.0204081632653  3.79594595901e-122
    0.0255102040816  3.79594595901e-122
     0.030612244898  3.79594595901e-122
    0.0357142857143  3.79594595901e-122
    0.0408163265306  3.79594595901e-122
    0.0459183673469  3.79594595901e-122
    0.0510204081633  3.79594595901e-122
    0.0561224489796  3.79594595901e-122
    0.0612244897959  3.79594595901e-122
    0.0663265306122  3.79594595901e-122
    0.0714285714286  3.79594595901e-122
    0.0765306122449  3.79594595901e-122
    0.0816326530612  3.79594595901e-122
    0.0867346938776  3.79594595901e-122
    0.0918367346939  3.79594595901e-122
    0.0969387755102  3.79594595901e-122
     0.102040816327  3.79594595901e-122
     0.107142857143  3.79594595901e-122
     0.112244897959  3.79594595901e-122
     0.117346938776  3.79594595901e-122
     0.122448979592  3.79594595901e-122
     0.127551020408  3.79594595901e-122
     0.132653061224  3.79594595901e-122
     0.137755102041  3.79594595901e-122
     0.142857142857  3.79594595901e-122
     0.147959183673  3.79594595901e-122
      0.15306122449  3.79594595901e-122
     0.158163265306  3.79594595901e-122
     0.163265306122  3.79594595901e-122
     0.168367346939  3.79594595901e-122
     0.173469387755  3.79594595901e-122
     0.178571428571  3.79594595901e-122
     0.183673469388  3.79594595901e-122
     0.188775510204  3.79594595901e-122
      0.19387755102  3.79594595901e-122
     0.198979591837  3.79594595901e-122
