#                 y    alpha.particles1
  1.71541114647e-17  9.40345469886e-167
   0.00510204081633  9.40345469886e-167
    0.0102040816327  9.40345469886e-167
     0.015306122449  9.40345469886e-167
    0.0204081632653  9.40345469886e-167
    0.0255102040816  9.40345469886e-167
     0.030612244898  9.40345469886e-167
    0.0357142857143  9.40345469886e-167
    0.0408163265306  9.40345469886e-167
    0.0459183673469  9.40345469886e-167
    0.0510204081633  9.40345469886e-167
    0.0561224489796  9.40345469886e-167
    0.0612244897959  9.40345469886e-167
    0.0663265306122  9.40345469886e-167
    0.0714285714286  9.40345469886e-167
    0.0765306122449  9.40345469886e-167
    0.0816326530612  9.40345469886e-167
    0.0867346938776  9.40345469886e-167
    0.0918367346939  9.40345469886e-167
    0.0969387755102  9.40345469886e-167
     0.102040816327  9.40345469886e-167
     0.107142857143  9.40345469886e-167
     0.112244897959  9.40345469886e-167
     0.117346938776  9.40345469886e-167
     0.122448979592  9.40345469886e-167
     0.127551020408  9.40345469886e-167
     0.132653061224  9.40345469886e-167
     0.137755102041  9.40345469886e-167
     0.142857142857  9.40345469886e-167
     0.147959183673  9.40345469886e-167
      0.15306122449  9.40345469886e-167
     0.158163265306  9.40345469886e-167
     0.163265306122  9.40345469886e-167
     0.168367346939  9.40345469886e-167
     0.173469387755  9.40345469886e-167
     0.178571428571  9.40345469886e-167
     0.183673469388  9.40345469886e-167
     0.188775510204  9.40345469886e-167
      0.19387755102  9.40345469886e-167
     0.198979591837  9.40345469886e-167
