#                 x                   p
  5.82806719551e-19       101874.480294
   0.00502512562814       101872.927676
    0.0100502512563       101871.112272
    0.0150753768844       101870.747741
    0.0201005025126       101870.524189
    0.0251256281407       101870.270948
    0.0301507537688       101869.951752
     0.035175879397       101869.553546
    0.0402010050251       101869.073223
    0.0452261306533       101868.511347
    0.0502512562814       101867.870336
    0.0552763819095       101867.154023
    0.0603015075377       101866.369051
    0.0653266331658       101865.524341
     0.070351758794       101864.629883
    0.0753768844221       101863.696962
    0.0804020100503       101862.737209
    0.0854271356784        101861.76328
    0.0904522613065       101860.787739
    0.0954773869347       101859.821211
     0.100502512563       101858.873619
     0.105527638191       101857.954892
     0.110552763819       101857.072314
     0.115577889447       101856.230325
     0.120603015075       101855.433404
     0.125628140704       101854.684316
     0.130653266332       101853.983453
      0.13567839196       101853.328831
     0.140703517588       101852.716458
     0.145728643216       101852.142942
     0.150753768844       101851.605263
     0.155778894472       101851.100072
     0.160804020101          101850.623
     0.165829145729       101850.169373
     0.170854271357       101849.736076
     0.175879396985       101849.322404
     0.180904522613       101848.929748
     0.185929648241       101848.557663
     0.190954773869       101848.210566
     0.195979899497       101847.902716
     0.201005025126        101847.60798
     0.206030150754       101847.297146
     0.211055276382        101847.00521
      0.21608040201       101846.746789
     0.221105527638       101846.499193
     0.226130653266       101846.252252
     0.231155778894       101846.001385
     0.236180904523       101845.737433
     0.241206030151       101845.466587
     0.246231155779       101845.231627
     0.251256281407       101845.039926
     0.256281407035       101844.859609
     0.261306532663       101844.645698
     0.266331658291       101844.345213
      0.27135678392       101843.852969
     0.276381909548       101843.010795
     0.281407035176       101841.826145
     0.286432160804       101840.460574
     0.291457286432       101838.998054
      0.29648241206       101837.493194
     0.301507537688       101836.064017
     0.306532663317       101834.803337
     0.311557788945       101833.735611
     0.316582914573       101832.840115
     0.321608040201       101832.085691
     0.326633165829       101831.443693
     0.331658291457        101830.88758
     0.336683417085       101830.397411
     0.341708542714       101829.958785
     0.346733668342        101829.56141
      0.35175879397        101829.19787
     0.356783919598       101828.862732
     0.361809045226        101828.55191
     0.366834170854       101828.262247
     0.371859296482       101827.991241
     0.376884422111        101827.73686
     0.381909547739       101827.497417
     0.386934673367       101827.271491
     0.391959798995       101827.057863
     0.396984924623       101826.855479
     0.402010050251       101826.663418
     0.407035175879       101826.480868
     0.412060301508       101826.307111
     0.417085427136       101826.141504
     0.422110552764       101825.983474
     0.427135678392       101825.832506
      0.43216080402       101825.688133
     0.437185929648       101825.549933
     0.442211055276       101825.417525
     0.447236180905       101825.290559
     0.452261306533       101825.168716
     0.457286432161       101825.051706
     0.462311557789        101824.93926
     0.467336683417       101824.831133
     0.472361809045       101824.727098
     0.477386934673       101824.626944
     0.482412060302        101824.53048
      0.48743718593       101824.437523
     0.492462311558       101824.347908
     0.497487437186       101824.261479
     0.502512562814        101824.17809
     0.507537688442       101824.097601
      0.51256281407       101824.019881
     0.517587939698       101823.944816
     0.522613065327       101823.872297
     0.527638190955       101823.802222
     0.532663316583       101823.734491
     0.537688442211       101823.669011
     0.542713567839       101823.605692
     0.547738693467       101823.544453
     0.552763819095       101823.485213
     0.557788944724       101823.427898
     0.562814070352       101823.372437
      0.56783919598       101823.318762
     0.572864321608        101823.26681
     0.577889447236       101823.216519
     0.582914572864       101823.167831
     0.587939698492       101823.120691
     0.592964824121       101823.075046
     0.597989949749       101823.030844
     0.603015075377       101822.988039
     0.608040201005       101822.946582
     0.613065326633        101822.90643
     0.618090452261       101822.867541
     0.623115577889       101822.829872
     0.628140703518       101822.793386
     0.633165829146       101822.758044
     0.638190954774        101822.72381
     0.643216080402        101822.69065
      0.64824120603       101822.658529
     0.653266331658       101822.627416
     0.658291457286        101822.59728
     0.663316582915       101822.568091
     0.668341708543       101822.539821
     0.673366834171       101822.512441
     0.678391959799       101822.485925
     0.683417085427       101822.460246
     0.688442211055        101822.43538
     0.693467336683       101822.411303
     0.698492462312        101822.38799
      0.70351758794        101822.36542
     0.708542713568       101822.343571
     0.713567839196       101822.322423
     0.718592964824       101822.301953
     0.723618090452       101822.282144
      0.72864321608       101822.262976
     0.733668341709       101822.244431
     0.738693467337       101822.226491
     0.743718592965        101822.20914
     0.748743718593        101822.19236
     0.753768844221       101822.176135
     0.758793969849       101822.160452
     0.763819095477       101822.145294
     0.768844221106       101822.130647
     0.773869346734       101822.116498
     0.778894472362       101822.102833
      0.78391959799       101822.089639
     0.788944723618       101822.076905
     0.793969849246       101822.064616
     0.798994974874       101822.052764
     0.804020100503       101822.041335
     0.809045226131       101822.030319
     0.814070351759       101822.019707
     0.819095477387       101822.009487
     0.824120603015        101821.99965
     0.829145728643       101821.990188
     0.834170854271        101821.98109
     0.839195979899        101821.97235
     0.844221105528       101821.963957
     0.849246231156       101821.955905
     0.854271356784       101821.948186
     0.859296482412       101821.940793
      0.86432160804       101821.933718
     0.869346733668       101821.926956
     0.874371859296         101821.9205
     0.879396984925       101821.914344
     0.884422110553       101821.908483
     0.889447236181       101821.902911
     0.894472361809       101821.897624
     0.899497487437       101821.892618
     0.904522613065       101821.887889
     0.909547738693       101821.883434
     0.914572864322        101821.87925
      0.91959798995       101821.875337
     0.924623115578       101821.871694
     0.929648241206       101821.868324
     0.934673366834        101821.86523
     0.939698492462       101821.862419
      0.94472361809       101821.859901
     0.949748743719       101821.857689
     0.954773869347       101821.855804
     0.959798994975        101821.85427
     0.964824120603       101821.853119
     0.969849246231       101821.852386
     0.974874371859       101821.852111
     0.979899497487        101821.85232
     0.984924623116       101821.853006
     0.989949748744       101821.854138
     0.994974874372       101821.855167
                  1       101821.834793
