#                 y    alpha.particles1
  1.71541114647e-17      0.141379325902
   0.00510204081633      0.141379325902
    0.0102040816327      0.141379325902
     0.015306122449      0.141379325902
    0.0204081632653      0.141379325902
    0.0255102040816      0.141379325902
     0.030612244898      0.141379325902
    0.0357142857143      0.141379325902
    0.0408163265306      0.141379325902
    0.0459183673469      0.141379325902
    0.0510204081633      0.141379325902
    0.0561224489796      0.141379325902
    0.0612244897959      0.141379325902
    0.0663265306122      0.141379325902
    0.0714285714286      0.141379325902
    0.0765306122449      0.141379325902
    0.0816326530612      0.141379325902
    0.0867346938776      0.141379325902
    0.0918367346939      0.141379325902
    0.0969387755102      0.141379325902
     0.102040816327      0.141379325902
     0.107142857143      0.141379325902
     0.112244897959      0.141379325902
     0.117346938776      0.141379325902
     0.122448979592      0.141379325902
     0.127551020408      0.141379325902
     0.132653061224      0.141379325902
     0.137755102041      0.141379325902
     0.142857142857      0.141379325902
     0.147959183673      0.141379325902
      0.15306122449      0.141379325902
     0.158163265306      0.141379325902
     0.163265306122      0.141379325902
     0.168367346939      0.141379325902
     0.173469387755      0.141379325902
     0.178571428571      0.141379325902
     0.183673469388      0.141379325902
     0.188775510204      0.141379325902
      0.19387755102      0.141379325902
     0.198979591837      0.141379325902
