#                 y    alpha.particles1
  4.69459540686e-18  8.18310458287e-287
   0.00510204081633  8.18310458309e-287
    0.0102040816327  8.18310458287e-287
     0.015306122449  8.18310458287e-287
    0.0204081632653  8.18310458265e-287
    0.0255102040816  8.18310458265e-287
     0.030612244898  8.18310458265e-287
    0.0357142857143  8.18310458265e-287
    0.0408163265306  8.18310458287e-287
    0.0459183673469  8.18310458287e-287
    0.0510204081633  8.18310458287e-287
    0.0561224489796  8.18310458287e-287
    0.0612244897959  8.18310458287e-287
    0.0663265306122  8.18310458287e-287
    0.0714285714286  8.18310458287e-287
    0.0765306122449  8.18310458287e-287
    0.0816326530612  8.18310458287e-287
    0.0867346938776  8.18310458287e-287
    0.0918367346939  8.18310458287e-287
    0.0969387755102  8.18310458287e-287
     0.102040816327  8.18310458287e-287
     0.107142857143  8.18310458287e-287
     0.112244897959  8.18310458287e-287
     0.117346938776  8.18310458287e-287
     0.122448979592  8.18310458287e-287
     0.127551020408  8.18310458287e-287
     0.132653061224  8.18310458287e-287
     0.137755102041  8.18310458287e-287
     0.142857142857  8.18310458287e-287
     0.147959183673  8.18310458287e-287
      0.15306122449  8.18310458287e-287
     0.158163265306  8.18310458287e-287
     0.163265306122  8.18310458287e-287
     0.168367346939  8.18310458287e-287
     0.173469387755  8.18310458287e-287
     0.178571428571  8.18310458287e-287
     0.183673469388  8.18310458287e-287
     0.188775510204  8.18310458287e-287
      0.19387755102  8.18310458287e-287
     0.198979591837  8.18310458287e-287
