#                 x                   p
  5.82806719551e-19       101824.662055
   0.00502512562814       101824.681692
    0.0100502512563       101824.676322
    0.0150753768844       101824.671766
    0.0201005025126       101824.665586
    0.0251256281407       101824.657565
    0.0301507537688       101824.648787
     0.035175879397        101824.64033
    0.0402010050251       101824.632705
    0.0452261306533       101824.626258
    0.0502512562814       101824.621015
    0.0552763819095       101824.616748
    0.0603015075377       101824.613567
    0.0653266331658        101824.61317
     0.070351758794       101824.614438
    0.0753768844221       101824.615876
    0.0804020100503       101824.618885
    0.0854271356784       101824.623489
    0.0904522613065       101824.629743
    0.0954773869347       101824.637687
     0.100502512563       101824.646956
     0.105527638191       101824.658073
     0.110552763819       101824.671288
     0.115577889447        101824.68617
     0.120603015075       101824.702496
     0.125628140704       101824.720406
     0.130653266332       101824.740056
      0.13567839196        101824.76146
     0.140703517588       101824.784803
     0.145728643216        101824.81016
     0.150753768844       101824.837324
     0.155778894472       101824.867024
     0.160804020101       101824.899332
     0.165829145729       101824.933715
     0.170854271357       101824.970351
     0.175879396985       101825.009323
     0.180904522613       101825.051271
     0.185929648241       101825.096188
     0.190954773869        101825.14369
     0.195979899497       101825.194973
     0.201005025126       101825.250111
     0.206030150754       101825.308467
     0.211055276382       101825.371182
      0.21608040201       101825.439159
     0.221105527638       101825.512712
     0.226130653266       101825.592087
     0.231155778894       101825.677945
     0.236180904523       101825.772152
     0.241206030151       101825.875973
     0.246231155779       101825.990728
     0.251256281407       101826.119792
     0.256281407035       101826.266043
     0.261306532663       101826.433789
     0.266331658291       101826.630306
      0.27135678392       101826.865017
     0.276381909548       101827.152159
     0.281407035176       101827.514231
     0.286432160804       101827.987316
     0.291457286432       101828.627473
      0.29648241206       101829.517238
     0.301507537688       101830.762581
     0.306532663317        101832.46907
     0.311557788945       101834.659683
     0.316582914573       101837.146436
     0.321608040201       101839.570181
     0.326633165829       101841.585312
     0.331658291457        101843.00654
     0.336683417085       101844.181643
     0.341708542714       101845.454053
     0.346733668342       101846.726951
      0.35175879397       101847.887749
     0.356783919598        101848.89755
     0.361809045226       101849.786871
     0.366834170854       101850.549088
     0.371859296482        101851.17595
     0.376884422111        101851.69927
     0.381909547739       101852.116637
     0.386934673367       101852.428583
     0.391959798995       101852.672798
     0.396984924623       101852.882886
     0.402010050251       101853.093793
     0.407035175879       101853.327406
     0.412060301508       101853.563176
     0.417085427136       101853.805942
     0.422110552764       101854.090789
     0.427135678392       101854.398099
      0.43216080402       101854.712626
     0.437185929648       101855.044113
     0.442211055276       101855.367444
     0.447236180905       101855.685742
     0.452261306533       101856.029867
     0.457286432161       101856.404815
     0.462311557789       101856.795261
     0.467336683417       101857.181419
     0.472361809045       101857.573239
     0.477386934673       101857.990774
     0.482412060302       101858.410215
      0.48743718593       101858.783363
     0.492462311558        101859.11099
     0.497487437186       101859.457279
     0.502512562814       101859.849294
     0.507537688442       101860.270719
      0.51256281407       101860.722492
     0.517587939698       101861.216215
     0.522613065327       101861.739295
     0.527638190955       101862.256588
     0.532663316583       101862.741368
     0.537688442211       101863.179442
     0.542713567839        101863.57575
     0.547738693467       101863.929719
     0.552763819095       101864.235953
     0.557788944724        101864.49938
     0.562814070352       101864.724569
      0.56783919598        101864.91486
     0.572864321608       101865.080271
     0.577889447236       101865.221736
     0.582914572864       101865.323163
     0.587939698492       101865.392208
     0.592964824121        101865.44523
     0.597989949749       101865.476209
     0.603015075377        101865.48715
     0.608040201005        101865.48187
     0.613065326633       101865.455673
     0.618090452261       101865.403327
     0.623115577889       101865.330308
     0.628140703518       101865.263796
     0.633165829146       101865.201793
     0.638190954774       101865.123061
     0.643216080402       101865.031406
      0.64824120603       101864.918124
     0.653266331658       101864.807439
     0.658291457286       101864.718625
     0.663316582915       101864.634098
     0.668341708543       101864.564418
     0.673366834171       101864.492786
     0.678391959799       101864.423034
     0.683417085427       101864.378531
     0.688442211055       101864.333331
     0.693467336683       101864.319922
     0.698492462312       101864.368868
      0.70351758794       101864.431408
     0.708542713568       101864.482277
     0.713567839196       101864.540498
     0.718592964824       101864.630261
     0.723618090452        101864.76272
      0.72864321608       101864.911602
     0.733668341709       101865.044537
     0.738693467337       101865.160188
     0.743718592965       101865.274229
     0.748743718593        101865.38836
     0.753768844221       101865.541593
     0.758793969849       101865.713354
     0.763819095477       101865.800871
     0.768844221106       101865.845465
     0.773869346734       101865.861238
     0.778894472362       101865.865634
      0.78391959799       101865.957467
     0.788944723618       101866.076773
     0.793969849246       101866.136865
     0.798994974874       101866.144777
     0.804020100503       101866.114365
     0.809045226131       101866.076757
     0.814070351759       101865.998634
     0.819095477387       101865.904092
     0.824120603015       101865.836913
     0.829145728643       101865.731514
     0.834170854271       101865.627591
     0.839195979899       101865.538564
     0.844221105528        101865.40417
     0.849246231156       101865.298682
     0.854271356784       101865.212715
     0.859296482412       101865.062056
      0.86432160804       101864.865587
     0.869346733668       101864.660701
     0.874371859296       101864.478162
     0.879396984925       101864.290116
     0.884422110553        101864.06514
     0.889447236181       101863.805236
     0.894472361809       101863.599431
     0.899497487437       101863.438633
     0.904522613065       101863.219096
     0.909547738693        101863.03867
     0.914572864322       101862.905369
      0.91959798995       101862.761134
     0.924623115578       101862.650459
     0.929648241206        101862.53278
     0.934673366834       101862.416511
     0.939698492462       101862.295342
      0.94472361809       101862.211563
     0.949748743719       101862.159075
     0.954773869347       101862.092618
     0.959798994975       101862.017475
     0.964824120603       101861.984135
     0.969849246231       101862.003623
     0.974874371859        101861.98613
     0.979899497487       101861.946384
     0.984924623116       101861.881529
     0.989949748744       101861.763704
     0.994974874372       101861.665781
                  1       101861.604842
